<?xml version="1.0" encoding="UTF-8"?>

<!-- generated on 07/23/20 18:36:27 by Eclipse SUMO Version 1.5.0
<configuration xmlns:xsi="http://www.w3.org/2001/XMLSchema-instance" xsi:noNamespaceSchemaLocation="http://sumo.dlr.de/xsd/sumoConfiguration.xsd">

    <input>
        <net-file value="./mapas/0.net.xml"/>
        <route-files value="./mapas/rota.rou.xml"/>
    </input>

    <output>
        <tripinfo-output value="./output/0.net.xml"/>
    </output>

    <report>
        <verbose value="true"/>
        <log value="logfile.txt"/>
        <duration-log.statistics value="true"/>
    </report>

    <emissions>
        <device.emissions.probability value="1"/>
    </emissions>

    <traci_server>
        <remote-port value="51429"/>
    </traci_server>

</configuration>
-->

<tripinfos xmlns:xsi="http://www.w3.org/2001/XMLSchema-instance" xsi:noNamespaceSchemaLocation="http://sumo.dlr.de/xsd/tripinfo_file.xsd">
    <tripinfo id="caminhao" depart="0.00" departLane="A0B0_0" departPos="5.10" departSpeed="0.00" departDelay="0.00" arrival="1772.00" arrivalLane="S0T0_0" arrivalPos="86.66" arrivalSpeed="1.24" duration="1772.00" routeLength="2930.15" waitingTime="0.00" waitingCount="0" stopTime="0.00" timeLoss="439.97" rerouteNo="0" devices="tripinfo_caminhao emissions_caminhao" vType="DEFAULT_VEHTYPE@caminhao" speedFactor="1.06" vaporized="">
        <emissions CO_abs="15626.619832" CO2_abs="8589624.777399" HC_abs="0" PMx_abs="2164.191913" NOx_abs="89361.198578" fuel_abs="3641.518834" electricity_abs="0"/>
    </tripinfo>
</tripinfos>
