<?xml version="1.0" encoding="UTF-8"?>

<!-- generated on 07/23/20 18:37:01 by Eclipse SUMO Version 1.5.0
<configuration xmlns:xsi="http://www.w3.org/2001/XMLSchema-instance" xsi:noNamespaceSchemaLocation="http://sumo.dlr.de/xsd/sumoConfiguration.xsd">

    <input>
        <net-file value="./mapas/5.net.xml"/>
        <route-files value="./mapas/rota.rou.xml"/>
    </input>

    <output>
        <tripinfo-output value="./output/5.net.xml"/>
    </output>

    <report>
        <verbose value="true"/>
        <log value="logfile.txt"/>
        <duration-log.statistics value="true"/>
    </report>

    <emissions>
        <device.emissions.probability value="1"/>
    </emissions>

    <traci_server>
        <remote-port value="51443"/>
    </traci_server>

</configuration>
-->

<tripinfos xmlns:xsi="http://www.w3.org/2001/XMLSchema-instance" xsi:noNamespaceSchemaLocation="http://sumo.dlr.de/xsd/tripinfo_file.xsd">
    <tripinfo id="caminhao" depart="0.00" departLane="A0B0_0" departPos="5.10" departSpeed="0.00" departDelay="0.00" arrival="2594.00" arrivalLane="S0T0_0" arrivalPos="115.56" arrivalSpeed="1.98" duration="2594.00" routeLength="4265.55" waitingTime="0.00" waitingCount="0" stopTime="0.00" timeLoss="654.39" rerouteNo="0" devices="tripinfo_caminhao emissions_caminhao" vType="DEFAULT_VEHTYPE@caminhao" speedFactor="1.06" vaporized="">
        <emissions CO_abs="22960.507667" CO2_abs="12615615.692460" HC_abs="0" PMx_abs="3180.486408" NOx_abs="131291.679993" fuel_abs="5348.313054" electricity_abs="0"/>
    </tripinfo>
</tripinfos>
