<?xml version="1.0" encoding="UTF-8"?>

<!-- generated on 07/23/20 18:37:16 by Eclipse SUMO Version 1.5.0
<configuration xmlns:xsi="http://www.w3.org/2001/XMLSchema-instance" xsi:noNamespaceSchemaLocation="http://sumo.dlr.de/xsd/sumoConfiguration.xsd">

    <input>
        <net-file value="./mapas/7.net.xml"/>
        <route-files value="./mapas/rota.rou.xml"/>
    </input>

    <output>
        <tripinfo-output value="./output/7.net.xml"/>
    </output>

    <report>
        <verbose value="true"/>
        <log value="logfile.txt"/>
        <duration-log.statistics value="true"/>
    </report>

    <emissions>
        <device.emissions.probability value="1"/>
    </emissions>

    <traci_server>
        <remote-port value="51450"/>
    </traci_server>

</configuration>
-->

<tripinfos xmlns:xsi="http://www.w3.org/2001/XMLSchema-instance" xsi:noNamespaceSchemaLocation="http://sumo.dlr.de/xsd/tripinfo_file.xsd">
    <tripinfo id="caminhao" depart="0.00" departLane="A0B0_0" departPos="5.10" departSpeed="0.00" departDelay="0.00" arrival="2013.00" arrivalLane="S0T0_0" arrivalPos="180.32" arrivalSpeed="2.10" duration="2013.00" routeLength="3315.68" waitingTime="0.00" waitingCount="0" stopTime="0.00" timeLoss="505.21" rerouteNo="0" devices="tripinfo_caminhao emissions_caminhao" vType="DEFAULT_VEHTYPE@caminhao" speedFactor="1.06" vaporized="">
        <emissions CO_abs="17635.461887" CO2_abs="9680957.650107" HC_abs="0" PMx_abs="2443.618573" NOx_abs="100809.517600" fuel_abs="4104.182194" electricity_abs="0"/>
    </tripinfo>
</tripinfos>
