<?xml version="1.0" encoding="UTF-8"?>

<!-- generated on 07/23/20 18:37:23 by Eclipse SUMO Version 1.5.0
<configuration xmlns:xsi="http://www.w3.org/2001/XMLSchema-instance" xsi:noNamespaceSchemaLocation="http://sumo.dlr.de/xsd/sumoConfiguration.xsd">

    <input>
        <net-file value="./mapas/8.net.xml"/>
        <route-files value="./mapas/rota.rou.xml"/>
    </input>

    <output>
        <tripinfo-output value="./output/8.net.xml"/>
    </output>

    <report>
        <verbose value="true"/>
        <log value="logfile.txt"/>
        <duration-log.statistics value="true"/>
    </report>

    <emissions>
        <device.emissions.probability value="1"/>
    </emissions>

    <traci_server>
        <remote-port value="51457"/>
    </traci_server>

</configuration>
-->

<tripinfos xmlns:xsi="http://www.w3.org/2001/XMLSchema-instance" xsi:noNamespaceSchemaLocation="http://sumo.dlr.de/xsd/tripinfo_file.xsd">
    <tripinfo id="caminhao" depart="0.00" departLane="A0B0_0" departPos="5.10" departSpeed="0.00" departDelay="0.00" arrival="1934.00" arrivalLane="S0T0_0" arrivalPos="224.22" arrivalSpeed="1.24" duration="1934.00" routeLength="3193.88" waitingTime="0.00" waitingCount="0" stopTime="0.00" timeLoss="481.86" rerouteNo="0" devices="tripinfo_caminhao emissions_caminhao" vType="DEFAULT_VEHTYPE@caminhao" speedFactor="1.06" vaporized="">
        <emissions CO_abs="17282.986542" CO2_abs="9487664.014499" HC_abs="0" PMx_abs="2394.683969" NOx_abs="98789.284779" fuel_abs="4022.236372" electricity_abs="0"/>
    </tripinfo>
</tripinfos>
